# --- THE TYPOGRAPHY ---
font-family = Iosevka Nerd Font
font-size = 11

# --- THE MONO-STEEL PALETTE ---
background = 0b0c10
foreground = aeb3c2
cursor-color = ffffff
# Matches the 85% opacity of Waybar
background-opacity = 0.85

# --- THE GEOMETRY ---
# Forces Ghostty to stop drawing its own titlebars
window-decoration = false
# Adds breathing room so your text doesn't slam into the borders
window-padding-x = 15
window-padding-y = 15

# --- THE MONO-STEEL PALETTE (ANSI) ---
# Black / Bright Black (Darker shades)
palette = 0=#0b0c10
palette = 8=#1f222d

# Red / Bright Red (Medium Steel)
palette = 1=#3d424d
palette = 9=#4e5461

# Green / Bright Green (Lighter Steel)
palette = 2=#5f6675
palette = 10=#707889

# Yellow / Bright Yellow (Text Gray)
palette = 3=#818a9d
palette = 11=#929cb1

# Blue / Bright Blue (Foreground Steel)
palette = 4=#aeb3c2
palette = 12=#bfc5d3

# Magenta / Bright Magenta (Highlight)
palette = 5=#d0d7e4
palette = 13=#e1e9f5

# Cyan / Bright Cyan (Bright Silver)
palette = 6=#f2faff
palette = 14=#ffffff

# White / Bright White
palette = 7=#aeb3c2
palette = 15=#ffffff
